s 1.000000000 _0_ AGT  --- 0 tcp 40 [0 0 0 0] ------- [0:0 19:0 32 0] [0 0] 0 0
r 1.000000000 _0_ RTR  --- 0 tcp 40 [0 0 0 0] ------- [0:0 19:0 32 0] [0 0] 0 0
s 1.000000000 _15_ AGT  --- 1 cbr 1000 [0 0 0 0] ------- [15:0 4:0 32 0] [0] 0 0
r 1.000000000 _15_ RTR  --- 1 cbr 1000 [0 0 0 0] ------- [15:0 4:0 32 0] [0] 0 0
s 1.000000000 _0_ RTR  --- 0 AODV 48 [0 0 0 0] ------- [0:255 -1:255 30 0] [0x2 1 1 [19 0] [0 4]] (REQUEST)
s 1.000000000 _15_ RTR  --- 0 AODV 48 [0 0 0 0] ------- [15:255 -1:255 30 0] [0x2 1 1 [4 0] [15 4]] (REQUEST)
s 1.000115000 _0_ MAC  --- 0 AODV 106 [0 ffffffff 0 800] ------- [0:255 -1:255 30 0] [0x2 1 1 [19 0] [0 4]] (REQUEST)
s 1.000635000 _15_ MAC  --- 0 AODV 106 [0 ffffffff f 800] ------- [15:255 -1:255 30 0] [0x2 1 1 [4 0] [15 4]] (REQUEST)
r 1.000963667 _5_ MAC  --- 0 AODV 48 [0 ffffffff 0 800] ------- [0:255 -1:255 30 0] [0x2 1 1 [19 0] [0 4]] (REQUEST)
r 1.000963667 _1_ MAC  --- 0 AODV 48 [0 ffffffff 0 800] ------- [0:255 -1:255 30 0] [0x2 1 1 [19 0] [0 4]] (REQUEST)
r 1.000988667 _5_ RTR  --- 0 AODV 48 [0 ffffffff 0 800] ------- [0:255 -1:255 30 0] [0x2 1 1 [19 0] [0 4]] (REQUEST)
r 1.000988667 _1_ RTR  --- 0 AODV 48 [0 ffffffff 0 800] ------- [0:255 -1:255 30 0] [0x2 1 1 [19 0] [0 4]] (REQUEST)
D 1.001483667 _10_ MAC  COL 0 AODV 106 [0 ffffffff f 800] ------- [15:255 -1:255 30 0] [0x2 1 1 [4 0] [15 4]] (REQUEST)
r 1.001483667 _16_ MAC  --- 0 AODV 48 [0 ffffffff f 800] ------- [15:255 -1:255 30 0] [0x2 1 1 [4 0] [15 4]] (REQUEST)
r 1.001508667 _16_ RTR  --- 0 AODV 48 [0 ffffffff f 800] ------- [15:255 -1:255 30 0] [0x2 1 1 [4 0] [15 4]] (REQUEST)
s 1.005400400 _5_ RTR  --- 0 AODV 48 [0 ffffffff 0 800] ------- [5:255 -1:255 29 0] [0x2 2 1 [19 0] [0 4]] (REQUEST)
s 1.005715400 _5_ MAC  --- 0 AODV 106 [0 ffffffff 5 800] ------- [5:255 -1:255 29 0] [0x2 2 1 [19 0] [0 4]] (REQUEST)
r 1.006564067 _0_ MAC  --- 0 AODV 48 [0 ffffffff 5 800] ------- [5:255 -1:255 29 0] [0x2 2 1 [19 0] [0 4]] (REQUEST)
r 1.006564067 _10_ MAC  --- 0 AODV 48 [0 ffffffff 5 800] ------- [5:255 -1:255 29 0] [0x2 2 1 [19 0] [0 4]] (REQUEST)
r 1.006564067 _6_ MAC  --- 0 AODV 48 [0 ffffffff 5 800] ------- [5:255 -1:255 29 0] [0x2 2 1 [19 0] [0 4]] (REQUEST)
r 1.006589067 _0_ RTR  --- 0 AODV 48 [0 ffffffff 5 800] ------- [5:255 -1:255 29 0] [0x2 2 1 [19 0] [0 4]] (REQUEST)
r 1.006589067 _10_ RTR  --- 0 AODV 48 [0 ffffffff 5 800] ------- [5:255 -1:255 29 0] [0x2 2 1 [19 0] [0 4]] (REQUEST)
r 1.006589067 _6_ RTR  --- 0 AODV 48 [0 ffffffff 5 800] ------- [5:255 -1:255 29 0] [0x2 2 1 [19 0] [0 4]] (REQUEST)
s 1.008000000 _15_ AGT  --- 2 cbr 1000 [0 0 0 0] ------- [15:0 4:0 32 0] [1] 0 0
r 1.008000000 _15_ RTR  --- 2 cbr 1000 [0 0 0 0] ------- [15:0 4:0 32 0] [1] 0 0
s 1.008980221 _1_ RTR  --- 0 AODV 48 [0 ffffffff 0 800] ------- [1:255 -1:255 29 0] [0x2 2 1 [19 0] [0 4]] (REQUEST)
s 1.009095221 _1_ MAC  --- 0 AODV 106 [0 ffffffff 1 800] ------- [1:255 -1:255 29 0] [0x2 2 1 [19 0] [0 4]] (REQUEST)
s 1.009673427 _16_ RTR  --- 0 AODV 48 [0 ffffffff f 800] ------- [16:255 -1:255 29 0] [0x2 2 1 [4 0] [15 4]] (REQUEST)
s 1.009679858 _10_ RTR  --- 0 AODV 48 [0 ffffffff 5 800] ------- [10:255 -1:255 28 0] [0x2 3 1 [19 0] [0 4]] (REQUEST)
r 1.009943888 _0_ MAC  --- 0 AODV 48 [0 ffffffff 1 800] ------- [1:255 -1:255 29 0] [0x2 2 1 [19 0] [0 4]] (REQUEST)
r 1.009943888 _6_ MAC  --- 0 AODV 48 [0 ffffffff 1 800] ------- [1:255 -1:255 29 0] [0x2 2 1 [19 0] [0 4]] (REQUEST)
r 1.009943888 _2_ MAC  --- 0 AODV 48 [0 ffffffff 1 800] ------- [1:255 -1:255 29 0] [0x2 2 1 [19 0] [0 4]] (REQUEST)
r 1.009968888 _0_ RTR  --- 0 AODV 48 [0 ffffffff 1 800] ------- [1:255 -1:255 29 0] [0x2 2 1 [19 0] [0 4]] (REQUEST)
r 1.009968888 _6_ RTR  --- 0 AODV 48 [0 ffffffff 1 800] ------- [1:255 -1:255 29 0] [0x2 2 1 [19 0] [0 4]] (REQUEST)
r 1.009968888 _2_ RTR  --- 0 AODV 48 [0 ffffffff 1 800] ------- [1:255 -1:255 29 0] [0x2 2 1 [19 0] [0 4]] (REQUEST)
s 1.010288427 _16_ MAC  --- 0 AODV 106 [0 ffffffff 10 800] ------- [16:255 -1:255 29 0] [0x2 2 1 [4 0] [15 4]] (REQUEST)
r 1.011137094 _11_ MAC  --- 0 AODV 48 [0 ffffffff 10 800] ------- [16:255 -1:255 29 0] [0x2 2 1 [4 0] [15 4]] (REQUEST)
r 1.011137094 _15_ MAC  --- 0 AODV 48 [0 ffffffff 10 800] ------- [16:255 -1:255 29 0] [0x2 2 1 [4 0] [15 4]] (REQUEST)
r 1.011137094 _17_ MAC  --- 0 AODV 48 [0 ffffffff 10 800] ------- [16:255 -1:255 29 0] [0x2 2 1 [4 0] [15 4]] (REQUEST)
r 1.011162094 _11_ RTR  --- 0 AODV 48 [0 ffffffff 10 800] ------- [16:255 -1:255 29 0] [0x2 2 1 [4 0] [15 4]] (REQUEST)
r 1.011162094 _15_ RTR  --- 0 AODV 48 [0 ffffffff 10 800] ------- [16:255 -1:255 29 0] [0x2 2 1 [4 0] [15 4]] (REQUEST)
r 1.011162094 _17_ RTR  --- 0 AODV 48 [0 ffffffff 10 800] ------- [16:255 -1:255 29 0] [0x2 2 1 [4 0] [15 4]] (REQUEST)
s 1.011711370 _10_ MAC  --- 0 AODV 106 [0 ffffffff a 800] ------- [10:255 -1:255 28 0] [0x2 3 1 [19 0] [0 4]] (REQUEST)
s 1.012103482 _17_ RTR  --- 0 AODV 48 [0 ffffffff 10 800] ------- [17:255 -1:255 28 0] [0x2 3 1 [4 0] [15 4]] (REQUEST)
r 1.012560037 _5_ MAC  --- 0 AODV 48 [0 ffffffff a 800] ------- [10:255 -1:255 28 0] [0x2 3 1 [19 0] [0 4]] (REQUEST)
r 1.012560037 _15_ MAC  --- 0 AODV 48 [0 ffffffff a 800] ------- [10:255 -1:255 28 0] [0x2 3 1 [19 0] [0 4]] (REQUEST)
r 1.012560037 _11_ MAC  --- 0 AODV 48 [0 ffffffff a 800] ------- [10:255 -1:255 28 0] [0x2 3 1 [19 0] [0 4]] (REQUEST)
r 1.012585037 _5_ RTR  --- 0 AODV 48 [0 ffffffff a 800] ------- [10:255 -1:255 28 0] [0x2 3 1 [19 0] [0 4]] (REQUEST)
r 1.012585037 _15_ RTR  --- 0 AODV 48 [0 ffffffff a 800] ------- [10:255 -1:255 28 0] [0x2 3 1 [19 0] [0 4]] (REQUEST)
r 1.012585037 _11_ RTR  --- 0 AODV 48 [0 ffffffff a 800] ------- [10:255 -1:255 28 0] [0x2 3 1 [19 0] [0 4]] (REQUEST)
s 1.012910146 _11_ RTR  --- 0 AODV 48 [0 ffffffff 10 800] ------- [11:255 -1:255 28 0] [0x2 3 1 [4 0] [15 4]] (REQUEST)
s 1.013225146 _11_ MAC  --- 0 AODV 106 [0 ffffffff b 800] ------- [11:255 -1:255 28 0] [0x2 3 1 [4 0] [15 4]] (REQUEST)
r 1.014073813 _6_ MAC  --- 0 AODV 48 [0 ffffffff b 800] ------- [11:255 -1:255 28 0] [0x2 3 1 [4 0] [15 4]] (REQUEST)
r 1.014073813 _10_ MAC  --- 0 AODV 48 [0 ffffffff b 800] ------- [11:255 -1:255 28 0] [0x2 3 1 [4 0] [15 4]] (REQUEST)
r 1.014073813 _16_ MAC  --- 0 AODV 48 [0 ffffffff b 800] ------- [11:255 -1:255 28 0] [0x2 3 1 [4 0] [15 4]] (REQUEST)
r 1.014073813 _12_ MAC  --- 0 AODV 48 [0 ffffffff b 800] ------- [11:255 -1:255 28 0] [0x2 3 1 [4 0] [15 4]] (REQUEST)
r 1.014098813 _6_ RTR  --- 0 AODV 48 [0 ffffffff b 800] ------- [11:255 -1:255 28 0] [0x2 3 1 [4 0] [15 4]] (REQUEST)
r 1.014098813 _10_ RTR  --- 0 AODV 48 [0 ffffffff b 800] ------- [11:255 -1:255 28 0] [0x2 3 1 [4 0] [15 4]] (REQUEST)
r 1.014098813 _16_ RTR  --- 0 AODV 48 [0 ffffffff b 800] ------- [11:255 -1:255 28 0] [0x2 3 1 [4 0] [15 4]] (REQUEST)
r 1.014098813 _12_ RTR  --- 0 AODV 48 [0 ffffffff b 800] ------- [11:255 -1:255 28 0] [0x2 3 1 [4 0] [15 4]] (REQUEST)
s 1.014568089 _17_ MAC  --- 0 AODV 106 [0 ffffffff 11 800] ------- [17:255 -1:255 28 0] [0x2 3 1 [4 0] [15 4]] (REQUEST)
s 1.014952303 _6_ RTR  --- 0 AODV 48 [0 ffffffff 5 800] ------- [6:255 -1:255 28 0] [0x2 3 1 [19 0] [0 4]] (REQUEST)
s 1.015165916 _15_ RTR  --- 0 AODV 48 [0 ffffffff a 800] ------- [15:255 -1:255 27 0] [0x2 4 1 [19 0] [0 4]] (REQUEST)
r 1.015416756 _12_ MAC  --- 0 AODV 48 [0 ffffffff 11 800] ------- [17:255 -1:255 28 0] [0x2 3 1 [4 0] [15 4]] (REQUEST)
r 1.015416756 _16_ MAC  --- 0 AODV 48 [0 ffffffff 11 800] ------- [17:255 -1:255 28 0] [0x2 3 1 [4 0] [15 4]] (REQUEST)
r 1.015416756 _18_ MAC  --- 0 AODV 48 [0 ffffffff 11 800] ------- [17:255 -1:255 28 0] [0x2 3 1 [4 0] [15 4]] (REQUEST)
r 1.015441756 _12_ RTR  --- 0 AODV 48 [0 ffffffff 11 800] ------- [17:255 -1:255 28 0] [0x2 3 1 [4 0] [15 4]] (REQUEST)
r 1.015441756 _16_ RTR  --- 0 AODV 48 [0 ffffffff 11 800] ------- [17:255 -1:255 28 0] [0x2 3 1 [4 0] [15 4]] (REQUEST)
r 1.015441756 _18_ RTR  --- 0 AODV 48 [0 ffffffff 11 800] ------- [17:255 -1:255 28 0] [0x2 3 1 [4 0] [15 4]] (REQUEST)
s 1.016000000 _15_ AGT  --- 3 cbr 1000 [0 0 0 0] ------- [15:0 4:0 32 0] [2] 0 0
r 1.016000000 _15_ RTR  --- 3 cbr 1000 [0 0 0 0] ------- [15:0 4:0 32 0] [2] 0 0
s 1.016191423 _15_ MAC  --- 0 AODV 106 [0 ffffffff f 800] ------- [15:255 -1:255 27 0] [0x2 4 1 [19 0] [0 4]] (REQUEST)
s 1.016671893 _11_ RTR  --- 0 AODV 48 [0 ffffffff a 800] ------- [11:255 -1:255 27 0] [0x2 4 1 [19 0] [0 4]] (REQUEST)
r 1.017040089 _10_ MAC  --- 0 AODV 48 [0 ffffffff f 800] ------- [15:255 -1:255 27 0] [0x2 4 1 [19 0] [0 4]] (REQUEST)
r 1.017040089 _16_ MAC  --- 0 AODV 48 [0 ffffffff f 800] ------- [15:255 -1:255 27 0] [0x2 4 1 [19 0] [0 4]] (REQUEST)
r 1.017065089 _10_ RTR  --- 0 AODV 48 [0 ffffffff f 800] ------- [15:255 -1:255 27 0] [0x2 4 1 [19 0] [0 4]] (REQUEST)
r 1.017065089 _16_ RTR  --- 0 AODV 48 [0 ffffffff f 800] ------- [15:255 -1:255 27 0] [0x2 4 1 [19 0] [0 4]] (REQUEST)
s 1.017634913 _6_ MAC  --- 0 AODV 106 [0 ffffffff 6 800] ------- [6:255 -1:255 28 0] [0x2 3 1 [19 0] [0 4]] (REQUEST)
r 1.018483580 _1_ MAC  --- 0 AODV 48 [0 ffffffff 6 800] ------- [6:255 -1:255 28 0] [0x2 3 1 [19 0] [0 4]] (REQUEST)
r 1.018483580 _5_ MAC  --- 0 AODV 48 [0 ffffffff 6 800] ------- [6:255 -1:255 28 0] [0x2 3 1 [19 0] [0 4]] (REQUEST)
r 1.018483580 _11_ MAC  --- 0 AODV 48 [0 ffffffff 6 800] ------- [6:255 -1:255 28 0] [0x2 3 1 [19 0] [0 4]] (REQUEST)
r 1.018483580 _7_ MAC  --- 0 AODV 48 [0 ffffffff 6 800] ------- [6:255 -1:255 28 0] [0x2 3 1 [19 0] [0 4]] (REQUEST)
r 1.018508580 _1_ RTR  --- 0 AODV 48 [0 ffffffff 6 800] ------- [6:255 -1:255 28 0] [0x2 3 1 [19 0] [0 4]] (REQUEST)
r 1.018508580 _5_ RTR  --- 0 AODV 48 [0 ffffffff 6 800] ------- [6:255 -1:255 28 0] [0x2 3 1 [19 0] [0 4]] (REQUEST)
r 1.018508580 _11_ RTR  --- 0 AODV 48 [0 ffffffff 6 800] ------- [6:255 -1:255 28 0] [0x2 3 1 [19 0] [0 4]] (REQUEST)
r 1.018508580 _7_ RTR  --- 0 AODV 48 [0 ffffffff 6 800] ------- [6:255 -1:255 28 0] [0x2 3 1 [19 0] [0 4]] (REQUEST)
s 1.018566165 _2_ RTR  --- 0 AODV 48 [0 ffffffff 1 800] ------- [2:255 -1:255 28 0] [0x2 3 1 [19 0] [0 4]] (REQUEST)
s 1.018713580 _11_ MAC  --- 0 AODV 106 [0 ffffffff b 800] ------- [11:255 -1:255 27 0] [0x2 4 1 [19 0] [0 4]] (REQUEST)
r 1.019562247 _6_ MAC  --- 0 AODV 48 [0 ffffffff b 800] ------- [11:255 -1:255 27 0] [0x2 4 1 [19 0] [0 4]] (REQUEST)
r 1.019562247 _10_ MAC  --- 0 AODV 48 [0 ffffffff b 800] ------- [11:255 -1:255 27 0] [0x2 4 1 [19 0] [0 4]] (REQUEST)
r 1.019562247 _16_ MAC  --- 0 AODV 48 [0 ffffffff b 800] ------- [11:255 -1:255 27 0] [0x2 4 1 [19 0] [0 4]] (REQUEST)
r 1.019562247 _12_ MAC  --- 0 AODV 48 [0 ffffffff b 800] ------- [11:255 -1:255 27 0] [0x2 4 1 [19 0] [0 4]] (REQUEST)
r 1.019587247 _6_ RTR  --- 0 AODV 48 [0 ffffffff b 800] ------- [11:255 -1:255 27 0] [0x2 4 1 [19 0] [0 4]] (REQUEST)
r 1.019587247 _10_ RTR  --- 0 AODV 48 [0 ffffffff b 800] ------- [11:255 -1:255 27 0] [0x2 4 1 [19 0] [0 4]] (REQUEST)
r 1.019587247 _16_ RTR  --- 0 AODV 48 [0 ffffffff b 800] ------- [11:255 -1:255 27 0] [0x2 4 1 [19 0] [0 4]] (REQUEST)
r 1.019587247 _12_ RTR  --- 0 AODV 48 [0 ffffffff b 800] ------- [11:255 -1:255 27 0] [0x2 4 1 [19 0] [0 4]] (REQUEST)
s 1.020077071 _2_ MAC  --- 0 AODV 106 [0 ffffffff 2 800] ------- [2:255 -1:255 28 0] [0x2 3 1 [19 0] [0 4]] (REQUEST)
r 1.020925737 _1_ MAC  --- 0 AODV 48 [0 ffffffff 2 800] ------- [2:255 -1:255 28 0] [0x2 3 1 [19 0] [0 4]] (REQUEST)
r 1.020925737 _7_ MAC  --- 0 AODV 48 [0 ffffffff 2 800] ------- [2:255 -1:255 28 0] [0x2 3 1 [19 0] [0 4]] (REQUEST)
r 1.020925737 _3_ MAC  --- 0 AODV 48 [0 ffffffff 2 800] ------- [2:255 -1:255 28 0] [0x2 3 1 [19 0] [0 4]] (REQUEST)
r 1.020950737 _1_ RTR  --- 0 AODV 48 [0 ffffffff 2 800] ------- [2:255 -1:255 28 0] [0x2 3 1 [19 0] [0 4]] (REQUEST)
r 1.020950737 _7_ RTR  --- 0 AODV 48 [0 ffffffff 2 800] ------- [2:255 -1:255 28 0] [0x2 3 1 [19 0] [0 4]] (REQUEST)
r 1.020950737 _3_ RTR  --- 0 AODV 48 [0 ffffffff 2 800] ------- [2:255 -1:255 28 0] [0x2 3 1 [19 0] [0 4]] (REQUEST)
s 1.021021881 _6_ RTR  --- 0 AODV 48 [0 ffffffff b 800] ------- [6:255 -1:255 27 0] [0x2 4 1 [4 0] [15 4]] (REQUEST)
s 1.021120280 _16_ RTR  --- 0 AODV 48 [0 ffffffff f 800] ------- [16:255 -1:255 26 0] [0x2 5 1 [19 0] [0 4]] (REQUEST)
s 1.021315280 _16_ MAC  --- 0 AODV 106 [0 ffffffff 10 800] ------- [16:255 -1:255 26 0] [0x2 5 1 [19 0] [0 4]] (REQUEST)
s 1.022071050 _3_ RTR  --- 0 AODV 48 [0 ffffffff 2 800] ------- [3:255 -1:255 27 0] [0x2 4 1 [19 0] [0 4]] (REQUEST)
r 1.022163947 _11_ MAC  --- 0 AODV 48 [0 ffffffff 10 800] ------- [16:255 -1:255 26 0] [0x2 5 1 [19 0] [0 4]] (REQUEST)
r 1.022163947 _15_ MAC  --- 0 AODV 48 [0 ffffffff 10 800] ------- [16:255 -1:255 26 0] [0x2 5 1 [19 0] [0 4]] (REQUEST)
r 1.022163947 _17_ MAC  --- 0 AODV 48 [0 ffffffff 10 800] ------- [16:255 -1:255 26 0] [0x2 5 1 [19 0] [0 4]] (REQUEST)
r 1.022188947 _11_ RTR  --- 0 AODV 48 [0 ffffffff 10 800] ------- [16:255 -1:255 26 0] [0x2 5 1 [19 0] [0 4]] (REQUEST)
r 1.022188947 _15_ RTR  --- 0 AODV 48 [0 ffffffff 10 800] ------- [16:255 -1:255 26 0] [0x2 5 1 [19 0] [0 4]] (REQUEST)
r 1.022188947 _17_ RTR  --- 0 AODV 48 [0 ffffffff 10 800] ------- [16:255 -1:255 26 0] [0x2 5 1 [19 0] [0 4]] (REQUEST)
s 1.022215245 _18_ RTR  --- 0 AODV 48 [0 ffffffff 11 800] ------- [18:255 -1:255 27 0] [0x2 4 1 [4 0] [15 4]] (REQUEST)
s 1.022486050 _3_ MAC  --- 0 AODV 106 [0 ffffffff 3 800] ------- [3:255 -1:255 27 0] [0x2 4 1 [19 0] [0 4]] (REQUEST)
s 1.022497065 _12_ RTR  --- 0 AODV 48 [0 ffffffff b 800] ------- [12:255 -1:255 27 0] [0x2 4 1 [4 0] [15 4]] (REQUEST)
s 1.022550655 _7_ RTR  --- 0 AODV 48 [0 ffffffff 6 800] ------- [7:255 -1:255 27 0] [0x2 4 1 [19 0] [0 4]] (REQUEST)
s 1.022719486 _10_ RTR  --- 0 AODV 48 [0 ffffffff b 800] ------- [10:255 -1:255 27 0] [0x2 4 1 [4 0] [15 4]] (REQUEST)
s 1.022758613 _18_ MAC  --- 0 AODV 106 [0 ffffffff 12 800] ------- [18:255 -1:255 27 0] [0x2 4 1 [4 0] [15 4]] (REQUEST)
s 1.022794486 _10_ MAC  --- 0 AODV 106 [0 ffffffff a 800] ------- [10:255 -1:255 27 0] [0x2 4 1 [4 0] [15 4]] (REQUEST)
r 1.023334717 _2_ MAC  --- 0 AODV 48 [0 ffffffff 3 800] ------- [3:255 -1:255 27 0] [0x2 4 1 [19 0] [0 4]] (REQUEST)
r 1.023334717 _8_ MAC  --- 0 AODV 48 [0 ffffffff 3 800] ------- [3:255 -1:255 27 0] [0x2 4 1 [19 0] [0 4]] (REQUEST)
r 1.023334717 _4_ MAC  --- 0 AODV 48 [0 ffffffff 3 800] ------- [3:255 -1:255 27 0] [0x2 4 1 [19 0] [0 4]] (REQUEST)
r 1.023359717 _2_ RTR  --- 0 AODV 48 [0 ffffffff 3 800] ------- [3:255 -1:255 27 0] [0x2 4 1 [19 0] [0 4]] (REQUEST)
r 1.023359717 _8_ RTR  --- 0 AODV 48 [0 ffffffff 3 800] ------- [3:255 -1:255 27 0] [0x2 4 1 [19 0] [0 4]] (REQUEST)
r 1.023359717 _4_ RTR  --- 0 AODV 48 [0 ffffffff 3 800] ------- [3:255 -1:255 27 0] [0x2 4 1 [19 0] [0 4]] (REQUEST)
s 1.023419982 _17_ RTR  --- 0 AODV 48 [0 ffffffff 10 800] ------- [17:255 -1:255 25 0] [0x2 6 1 [19 0] [0 4]] (REQUEST)
D 1.023607280 _13_ MAC  COL 0 AODV 106 [0 ffffffff 12 800] ------- [18:255 -1:255 27 0] [0x2 4 1 [4 0] [15 4]] (REQUEST)
r 1.023607280 _17_ MAC  --- 0 AODV 48 [0 ffffffff 12 800] ------- [18:255 -1:255 27 0] [0x2 4 1 [4 0] [15 4]] (REQUEST)
r 1.023607280 _19_ MAC  --- 0 AODV 48 [0 ffffffff 12 800] ------- [18:255 -1:255 27 0] [0x2 4 1 [4 0] [15 4]] (REQUEST)
r 1.023632280 _17_ RTR  --- 0 AODV 48 [0 ffffffff 12 800] ------- [18:255 -1:255 27 0] [0x2 4 1 [4 0] [15 4]] (REQUEST)
r 1.023632280 _19_ RTR  --- 0 AODV 48 [0 ffffffff 12 800] ------- [18:255 -1:255 27 0] [0x2 4 1 [4 0] [15 4]] (REQUEST)
r 1.023643153 _5_ MAC  --- 0 AODV 48 [0 ffffffff a 800] ------- [10:255 -1:255 27 0] [0x2 4 1 [4 0] [15 4]] (REQUEST)
r 1.023643153 _15_ MAC  --- 0 AODV 48 [0 ffffffff a 800] ------- [10:255 -1:255 27 0] [0x2 4 1 [4 0] [15 4]] (REQUEST)
D 1.023643153 _11_ MAC  COL 0 AODV 106 [0 ffffffff a 800] ------- [10:255 -1:255 27 0] [0x2 4 1 [4 0] [15 4]] (REQUEST)
r 1.023668153 _5_ RTR  --- 0 AODV 48 [0 ffffffff a 800] ------- [10:255 -1:255 27 0] [0x2 4 1 [4 0] [15 4]] (REQUEST)
r 1.023668153 _15_ RTR  --- 0 AODV 48 [0 ffffffff a 800] ------- [10:255 -1:255 27 0] [0x2 4 1 [4 0] [15 4]] (REQUEST)
s 1.024000000 _15_ AGT  --- 4 cbr 1000 [0 0 0 0] ------- [15:0 4:0 32 0] [3] 0 0
r 1.024000000 _15_ RTR  --- 4 cbr 1000 [0 0 0 0] ------- [15:0 4:0 32 0] [3] 0 0
s 1.024117429 _6_ MAC  --- 0 AODV 106 [0 ffffffff 6 800] ------- [6:255 -1:255 27 0] [0x2 4 1 [4 0] [15 4]] (REQUEST)
r 1.024966095 _1_ MAC  --- 0 AODV 48 [0 ffffffff 6 800] ------- [6:255 -1:255 27 0] [0x2 4 1 [4 0] [15 4]] (REQUEST)
r 1.024966095 _5_ MAC  --- 0 AODV 48 [0 ffffffff 6 800] ------- [6:255 -1:255 27 0] [0x2 4 1 [4 0] [15 4]] (REQUEST)
r 1.024966095 _11_ MAC  --- 0 AODV 48 [0 ffffffff 6 800] ------- [6:255 -1:255 27 0] [0x2 4 1 [4 0] [15 4]] (REQUEST)
r 1.024966095 _7_ MAC  --- 0 AODV 48 [0 ffffffff 6 800] ------- [6:255 -1:255 27 0] [0x2 4 1 [4 0] [15 4]] (REQUEST)
r 1.024991095 _1_ RTR  --- 0 AODV 48 [0 ffffffff 6 800] ------- [6:255 -1:255 27 0] [0x2 4 1 [4 0] [15 4]] (REQUEST)
r 1.024991095 _5_ RTR  --- 0 AODV 48 [0 ffffffff 6 800] ------- [6:255 -1:255 27 0] [0x2 4 1 [4 0] [15 4]] (REQUEST)
r 1.024991095 _11_ RTR  --- 0 AODV 48 [0 ffffffff 6 800] ------- [6:255 -1:255 27 0] [0x2 4 1 [4 0] [15 4]] (REQUEST)
r 1.024991095 _7_ RTR  --- 0 AODV 48 [0 ffffffff 6 800] ------- [6:255 -1:255 27 0] [0x2 4 1 [4 0] [15 4]] (REQUEST)
s 1.025436095 _7_ MAC  --- 0 AODV 106 [0 ffffffff 7 800] ------- [7:255 -1:255 27 0] [0x2 4 1 [19 0] [0 4]] (REQUEST)
s 1.025977959 _8_ RTR  --- 0 AODV 48 [0 ffffffff 3 800] ------- [8:255 -1:255 26 0] [0x2 5 1 [19 0] [0 4]] (REQUEST)
r 1.026284762 _2_ MAC  --- 0 AODV 48 [0 ffffffff 7 800] ------- [7:255 -1:255 27 0] [0x2 4 1 [19 0] [0 4]] (REQUEST)
r 1.026284762 _6_ MAC  --- 0 AODV 48 [0 ffffffff 7 800] ------- [7:255 -1:255 27 0] [0x2 4 1 [19 0] [0 4]] (REQUEST)
r 1.026284762 _12_ MAC  --- 0 AODV 48 [0 ffffffff 7 800] ------- [7:255 -1:255 27 0] [0x2 4 1 [19 0] [0 4]] (REQUEST)
r 1.026284762 _8_ MAC  --- 0 AODV 48 [0 ffffffff 7 800] ------- [7:255 -1:255 27 0] [0x2 4 1 [19 0] [0 4]] (REQUEST)
r 1.026309762 _2_ RTR  --- 0 AODV 48 [0 ffffffff 7 800] ------- [7:255 -1:255 27 0] [0x2 4 1 [19 0] [0 4]] (REQUEST)
r 1.026309762 _6_ RTR  --- 0 AODV 48 [0 ffffffff 7 800] ------- [7:255 -1:255 27 0] [0x2 4 1 [19 0] [0 4]] (REQUEST)
r 1.026309762 _12_ RTR  --- 0 AODV 48 [0 ffffffff 7 800] ------- [7:255 -1:255 27 0] [0x2 4 1 [19 0] [0 4]] (REQUEST)
r 1.026309762 _8_ RTR  --- 0 AODV 48 [0 ffffffff 7 800] ------- [7:255 -1:255 27 0] [0x2 4 1 [19 0] [0 4]] (REQUEST)
s 1.026514762 _12_ MAC  --- 0 AODV 106 [0 ffffffff c 800] ------- [12:255 -1:255 27 0] [0x2 4 1 [4 0] [15 4]] (REQUEST)
s 1.026905450 _19_ RTR  --- 0 AODV 48 [0 ffffffff 12 800] ------- [19:255 -1:255 26 0] [0x2 5 1 [4 0] [15 4]] (REQUEST)
s 1.027058436 _7_ RTR  --- 0 AODV 48 [0 ffffffff 6 800] ------- [7:255 -1:255 26 0] [0x2 5 1 [4 0] [15 4]] (REQUEST)
r 1.027363429 _7_ MAC  --- 0 AODV 48 [0 ffffffff c 800] ------- [12:255 -1:255 27 0] [0x2 4 1 [4 0] [15 4]] (REQUEST)
r 1.027363429 _11_ MAC  --- 0 AODV 48 [0 ffffffff c 800] ------- [12:255 -1:255 27 0] [0x2 4 1 [4 0] [15 4]] (REQUEST)
r 1.027363429 _17_ MAC  --- 0 AODV 48 [0 ffffffff c 800] ------- [12:255 -1:255 27 0] [0x2 4 1 [4 0] [15 4]] (REQUEST)
r 1.027363429 _13_ MAC  --- 0 AODV 48 [0 ffffffff c 800] ------- [12:255 -1:255 27 0] [0x2 4 1 [4 0] [15 4]] (REQUEST)
r 1.027388429 _7_ RTR  --- 0 AODV 48 [0 ffffffff c 800] ------- [12:255 -1:255 27 0] [0x2 4 1 [4 0] [15 4]] (REQUEST)
r 1.027388429 _11_ RTR  --- 0 AODV 48 [0 ffffffff c 800] ------- [12:255 -1:255 27 0] [0x2 4 1 [4 0] [15 4]] (REQUEST)
r 1.027388429 _17_ RTR  --- 0 AODV 48 [0 ffffffff c 800] ------- [12:255 -1:255 27 0] [0x2 4 1 [4 0] [15 4]] (REQUEST)
r 1.027388429 _13_ RTR  --- 0 AODV 48 [0 ffffffff c 800] ------- [12:255 -1:255 27 0] [0x2 4 1 [4 0] [15 4]] (REQUEST)
s 1.027473429 _7_ MAC  --- 0 AODV 106 [0 ffffffff 7 800] ------- [7:255 -1:255 26 0] [0x2 5 1 [4 0] [15 4]] (REQUEST)
s 1.027898253 _19_ MAC  --- 0 AODV 106 [0 ffffffff 13 800] ------- [19:255 -1:255 26 0] [0x2 5 1 [4 0] [15 4]] (REQUEST)
r 1.028322095 _2_ MAC  --- 0 AODV 48 [0 ffffffff 7 800] ------- [7:255 -1:255 26 0] [0x2 5 1 [4 0] [15 4]] (REQUEST)
r 1.028322095 _6_ MAC  --- 0 AODV 48 [0 ffffffff 7 800] ------- [7:255 -1:255 26 0] [0x2 5 1 [4 0] [15 4]] (REQUEST)
r 1.028322095 _12_ MAC  --- 0 AODV 48 [0 ffffffff 7 800] ------- [7:255 -1:255 26 0] [0x2 5 1 [4 0] [15 4]] (REQUEST)
r 1.028322095 _8_ MAC  --- 0 AODV 48 [0 ffffffff 7 800] ------- [7:255 -1:255 26 0] [0x2 5 1 [4 0] [15 4]] (REQUEST)
r 1.028347095 _2_ RTR  --- 0 AODV 48 [0 ffffffff 7 800] ------- [7:255 -1:255 26 0] [0x2 5 1 [4 0] [15 4]] (REQUEST)
r 1.028347095 _6_ RTR  --- 0 AODV 48 [0 ffffffff 7 800] ------- [7:255 -1:255 26 0] [0x2 5 1 [4 0] [15 4]] (REQUEST)
r 1.028347095 _12_ RTR  --- 0 AODV 48 [0 ffffffff 7 800] ------- [7:255 -1:255 26 0] [0x2 5 1 [4 0] [15 4]] (REQUEST)
r 1.028347095 _8_ RTR  --- 0 AODV 48 [0 ffffffff 7 800] ------- [7:255 -1:255 26 0] [0x2 5 1 [4 0] [15 4]] (REQUEST)
D 1.028746919 _14_ MAC  COL 0 AODV 106 [0 ffffffff 13 800] ------- [19:255 -1:255 26 0] [0x2 5 1 [4 0] [15 4]] (REQUEST)
D 1.028746919 _18_ MAC  COL 0 AODV 106 [0 ffffffff 13 800] ------- [19:255 -1:255 26 0] [0x2 5 1 [4 0] [15 4]] (REQUEST)
s 1.028908114 _4_ RTR  --- 0 AODV 48 [0 ffffffff 3 800] ------- [4:255 -1:255 26 0] [0x2 5 1 [19 0] [0 4]] (REQUEST)
s 1.029049896 _12_ RTR  --- 0 AODV 48 [0 ffffffff b 800] ------- [12:255 -1:255 26 0] [0x2 5 1 [19 0] [0 4]] (REQUEST)
s 1.029063114 _4_ MAC  --- 0 AODV 106 [0 ffffffff 4 800] ------- [4:255 -1:255 26 0] [0x2 5 1 [19 0] [0 4]] (REQUEST)
s 1.029221586 _17_ MAC  --- 0 AODV 106 [0 ffffffff 11 800] ------- [17:255 -1:255 25 0] [0x2 6 1 [19 0] [0 4]] (REQUEST)
r 1.029911781 _3_ MAC  --- 0 AODV 48 [0 ffffffff 4 800] ------- [4:255 -1:255 26 0] [0x2 5 1 [19 0] [0 4]] (REQUEST)
r 1.029911781 _9_ MAC  --- 0 AODV 48 [0 ffffffff 4 800] ------- [4:255 -1:255 26 0] [0x2 5 1 [19 0] [0 4]] (REQUEST)
r 1.029936781 _3_ RTR  --- 0 AODV 48 [0 ffffffff 4 800] ------- [4:255 -1:255 26 0] [0x2 5 1 [19 0] [0 4]] (REQUEST)
r 1.029936781 _9_ RTR  --- 0 AODV 48 [0 ffffffff 4 800] ------- [4:255 -1:255 26 0] [0x2 5 1 [19 0] [0 4]] (REQUEST)
r 1.030070253 _12_ MAC  --- 0 AODV 48 [0 ffffffff 11 800] ------- [17:255 -1:255 25 0] [0x2 6 1 [19 0] [0 4]] (REQUEST)
r 1.030070253 _16_ MAC  --- 0 AODV 48 [0 ffffffff 11 800] ------- [17:255 -1:255 25 0] [0x2 6 1 [19 0] [0 4]] (REQUEST)
r 1.030070253 _18_ MAC  --- 0 AODV 48 [0 ffffffff 11 800] ------- [17:255 -1:255 25 0] [0x2 6 1 [19 0] [0 4]] (REQUEST)
r 1.030095253 _12_ RTR  --- 0 AODV 48 [0 ffffffff 11 800] ------- [17:255 -1:255 25 0] [0x2 6 1 [19 0] [0 4]] (REQUEST)
r 1.030095253 _16_ RTR  --- 0 AODV 48 [0 ffffffff 11 800] ------- [17:255 -1:255 25 0] [0x2 6 1 [19 0] [0 4]] (REQUEST)
r 1.030095253 _18_ RTR  --- 0 AODV 48 [0 ffffffff 11 800] ------- [17:255 -1:255 25 0] [0x2 6 1 [19 0] [0 4]] (REQUEST)
s 1.030300253 _12_ MAC  --- 0 AODV 106 [0 ffffffff c 800] ------- [12:255 -1:255 26 0] [0x2 5 1 [19 0] [0 4]] (REQUEST)
r 1.031148919 _7_ MAC  --- 0 AODV 48 [0 ffffffff c 800] ------- [12:255 -1:255 26 0] [0x2 5 1 [19 0] [0 4]] (REQUEST)
r 1.031148919 _11_ MAC  --- 0 AODV 48 [0 ffffffff c 800] ------- [12:255 -1:255 26 0] [0x2 5 1 [19 0] [0 4]] (REQUEST)
r 1.031148919 _17_ MAC  --- 0 AODV 48 [0 ffffffff c 800] ------- [12:255 -1:255 26 0] [0x2 5 1 [19 0] [0 4]] (REQUEST)
r 1.031148919 _13_ MAC  --- 0 AODV 48 [0 ffffffff c 800] ------- [12:255 -1:255 26 0] [0x2 5 1 [19 0] [0 4]] (REQUEST)
r 1.031173919 _7_ RTR  --- 0 AODV 48 [0 ffffffff c 800] ------- [12:255 -1:255 26 0] [0x2 5 1 [19 0] [0 4]] (REQUEST)
r 1.031173919 _11_ RTR  --- 0 AODV 48 [0 ffffffff c 800] ------- [12:255 -1:255 26 0] [0x2 5 1 [19 0] [0 4]] (REQUEST)
r 1.031173919 _17_ RTR  --- 0 AODV 48 [0 ffffffff c 800] ------- [12:255 -1:255 26 0] [0x2 5 1 [19 0] [0 4]] (REQUEST)
r 1.031173919 _13_ RTR  --- 0 AODV 48 [0 ffffffff c 800] ------- [12:255 -1:255 26 0] [0x2 5 1 [19 0] [0 4]] (REQUEST)
s 1.031518024 _5_ RTR  --- 0 AODV 48 [0 ffffffff a 800] ------- [5:255 -1:255 26 0] [0x2 5 1 [4 0] [15 4]] (REQUEST)
s 1.031653024 _5_ MAC  --- 0 AODV 106 [0 ffffffff 5 800] ------- [5:255 -1:255 26 0] [0x2 5 1 [4 0] [15 4]] (REQUEST)
s 1.031863196 _8_ MAC  --- 0 AODV 106 [0 ffffffff 8 800] ------- [8:255 -1:255 26 0] [0x2 5 1 [19 0] [0 4]] (REQUEST)
s 1.032000000 _15_ AGT  --- 5 cbr 1000 [0 0 0 0] ------- [15:0 4:0 32 0] [4] 0 0
r 1.032000000 _15_ RTR  --- 5 cbr 1000 [0 0 0 0] ------- [15:0 4:0 32 0] [4] 0 0
s 1.032305646 _13_ RTR  --- 0 AODV 48 [0 ffffffff c 800] ------- [13:255 -1:255 26 0] [0x2 5 1 [4 0] [15 4]] (REQUEST)
r 1.032501690 _0_ MAC  --- 0 AODV 48 [0 ffffffff 5 800] ------- [5:255 -1:255 26 0] [0x2 5 1 [4 0] [15 4]] (REQUEST)
r 1.032501690 _10_ MAC  --- 0 AODV 48 [0 ffffffff 5 800] ------- [5:255 -1:255 26 0] [0x2 5 1 [4 0] [15 4]] (REQUEST)
r 1.032501690 _6_ MAC  --- 0 AODV 48 [0 ffffffff 5 800] ------- [5:255 -1:255 26 0] [0x2 5 1 [4 0] [15 4]] (REQUEST)
r 1.032526690 _0_ RTR  --- 0 AODV 48 [0 ffffffff 5 800] ------- [5:255 -1:255 26 0] [0x2 5 1 [4 0] [15 4]] (REQUEST)
r 1.032526690 _10_ RTR  --- 0 AODV 48 [0 ffffffff 5 800] ------- [5:255 -1:255 26 0] [0x2 5 1 [4 0] [15 4]] (REQUEST)
r 1.032526690 _6_ RTR  --- 0 AODV 48 [0 ffffffff 5 800] ------- [5:255 -1:255 26 0] [0x2 5 1 [4 0] [15 4]] (REQUEST)
r 1.032711862 _3_ MAC  --- 0 AODV 48 [0 ffffffff 8 800] ------- [8:255 -1:255 26 0] [0x2 5 1 [19 0] [0 4]] (REQUEST)
D 1.032711862 _7_ MAC  COL 0 AODV 106 [0 ffffffff 8 800] ------- [8:255 -1:255 26 0] [0x2 5 1 [19 0] [0 4]] (REQUEST)
r 1.032711862 _13_ MAC  --- 0 AODV 48 [0 ffffffff 8 800] ------- [8:255 -1:255 26 0] [0x2 5 1 [19 0] [0 4]] (REQUEST)
r 1.032711862 _9_ MAC  --- 0 AODV 48 [0 ffffffff 8 800] ------- [8:255 -1:255 26 0] [0x2 5 1 [19 0] [0 4]] (REQUEST)
s 1.032718053 _1_ RTR  --- 0 AODV 48 [0 ffffffff 6 800] ------- [1:255 -1:255 26 0] [0x2 5 1 [4 0] [15 4]] (REQUEST)
r 1.032736862 _3_ RTR  --- 0 AODV 48 [0 ffffffff 8 800] ------- [8:255 -1:255 26 0] [0x2 5 1 [19 0] [0 4]] (REQUEST)
r 1.032736862 _13_ RTR  --- 0 AODV 48 [0 ffffffff 8 800] ------- [8:255 -1:255 26 0] [0x2 5 1 [19 0] [0 4]] (REQUEST)
r 1.032736862 _9_ RTR  --- 0 AODV 48 [0 ffffffff 8 800] ------- [8:255 -1:255 26 0] [0x2 5 1 [19 0] [0 4]] (REQUEST)
s 1.033341862 _13_ MAC  --- 0 AODV 106 [0 ffffffff d 800] ------- [13:255 -1:255 26 0] [0x2 5 1 [4 0] [15 4]] (REQUEST)
s 1.033666686 _1_ MAC  --- 0 AODV 106 [0 ffffffff 1 800] ------- [1:255 -1:255 26 0] [0x2 5 1 [4 0] [15 4]] (REQUEST)
s 1.033676081 _8_ RTR  --- 0 AODV 48 [0 ffffffff 7 800] ------- [8:255 -1:255 25 0] [0x2 6 1 [4 0] [15 4]] (REQUEST)
r 1.034190529 _8_ MAC  --- 0 AODV 48 [0 ffffffff d 800] ------- [13:255 -1:255 26 0] [0x2 5 1 [4 0] [15 4]] (REQUEST)
r 1.034190529 _12_ MAC  --- 0 AODV 48 [0 ffffffff d 800] ------- [13:255 -1:255 26 0] [0x2 5 1 [4 0] [15 4]] (REQUEST)
r 1.034190529 _18_ MAC  --- 0 AODV 48 [0 ffffffff d 800] ------- [13:255 -1:255 26 0] [0x2 5 1 [4 0] [15 4]] (REQUEST)
r 1.034190529 _14_ MAC  --- 0 AODV 48 [0 ffffffff d 800] ------- [13:255 -1:255 26 0] [0x2 5 1 [4 0] [15 4]] (REQUEST)
r 1.034215529 _8_ RTR  --- 0 AODV 48 [0 ffffffff d 800] ------- [13:255 -1:255 26 0] [0x2 5 1 [4 0] [15 4]] (REQUEST)
r 1.034215529 _12_ RTR  --- 0 AODV 48 [0 ffffffff d 800] ------- [13:255 -1:255 26 0] [0x2 5 1 [4 0] [15 4]] (REQUEST)
r 1.034215529 _18_ RTR  --- 0 AODV 48 [0 ffffffff d 800] ------- [13:255 -1:255 26 0] [0x2 5 1 [4 0] [15 4]] (REQUEST)
r 1.034215529 _14_ RTR  --- 0 AODV 48 [0 ffffffff d 800] ------- [13:255 -1:255 26 0] [0x2 5 1 [4 0] [15 4]] (REQUEST)
r 1.034515353 _0_ MAC  --- 0 AODV 48 [0 ffffffff 1 800] ------- [1:255 -1:255 26 0] [0x2 5 1 [4 0] [15 4]] (REQUEST)
D 1.034515353 _6_ MAC  COL 0 AODV 106 [0 ffffffff 1 800] ------- [1:255 -1:255 26 0] [0x2 5 1 [4 0] [15 4]] (REQUEST)
D 1.034515353 _2_ MAC  COL 0 AODV 106 [0 ffffffff 1 800] ------- [1:255 -1:255 26 0] [0x2 5 1 [4 0] [15 4]] (REQUEST)
r 1.034540353 _0_ RTR  --- 0 AODV 48 [0 ffffffff 1 800] ------- [1:255 -1:255 26 0] [0x2 5 1 [4 0] [15 4]] (REQUEST)
s 1.035230177 _8_ MAC  --- 0 AODV 106 [0 ffffffff 8 800] ------- [8:255 -1:255 25 0] [0x2 6 1 [4 0] [15 4]] (REQUEST)
r 1.036078844 _3_ MAC  --- 0 AODV 48 [0 ffffffff 8 800] ------- [8:255 -1:255 25 0] [0x2 6 1 [4 0] [15 4]] (REQUEST)
r 1.036078844 _7_ MAC  --- 0 AODV 48 [0 ffffffff 8 800] ------- [8:255 -1:255 25 0] [0x2 6 1 [4 0] [15 4]] (REQUEST)
r 1.036078844 _13_ MAC  --- 0 AODV 48 [0 ffffffff 8 800] ------- [8:255 -1:255 25 0] [0x2 6 1 [4 0] [15 4]] (REQUEST)
r 1.036078844 _9_ MAC  --- 0 AODV 48 [0 ffffffff 8 800] ------- [8:255 -1:255 25 0] [0x2 6 1 [4 0] [15 4]] (REQUEST)
r 1.036103844 _3_ RTR  --- 0 AODV 48 [0 ffffffff 8 800] ------- [8:255 -1:255 25 0] [0x2 6 1 [4 0] [15 4]] (REQUEST)
r 1.036103844 _7_ RTR  --- 0 AODV 48 [0 ffffffff 8 800] ------- [8:255 -1:255 25 0] [0x2 6 1 [4 0] [15 4]] (REQUEST)
r 1.036103844 _13_ RTR  --- 0 AODV 48 [0 ffffffff 8 800] ------- [8:255 -1:255 25 0] [0x2 6 1 [4 0] [15 4]] (REQUEST)
r 1.036103844 _9_ RTR  --- 0 AODV 48 [0 ffffffff 8 800] ------- [8:255 -1:255 25 0] [0x2 6 1 [4 0] [15 4]] (REQUEST)
s 1.036105589 _3_ RTR  --- 0 AODV 48 [0 ffffffff 8 800] ------- [3:255 -1:255 24 0] [0x2 7 1 [4 0] [15 4]] (REQUEST)
s 1.036360589 _3_ MAC  --- 0 AODV 106 [0 ffffffff 3 800] ------- [3:255 -1:255 24 0] [0x2 7 1 [4 0] [15 4]] (REQUEST)
s 1.036938143 _9_ RTR  --- 0 AODV 48 [0 ffffffff 8 800] ------- [9:255 -1:255 24 0] [0x2 7 1 [4 0] [15 4]] (REQUEST)
s 1.036998150 _2_ RTR  --- 0 AODV 48 [0 ffffffff 7 800] ------- [2:255 -1:255 25 0] [0x2 6 1 [4 0] [15 4]] (REQUEST)
s 1.037035044 _13_ RTR  --- 0 AODV 48 [0 ffffffff c 800] ------- [13:255 -1:255 25 0] [0x2 6 1 [19 0] [0 4]] (REQUEST)
r 1.037209256 _2_ MAC  --- 0 AODV 48 [0 ffffffff 3 800] ------- [3:255 -1:255 24 0] [0x2 7 1 [4 0] [15 4]] (REQUEST)
r 1.037209256 _8_ MAC  --- 0 AODV 48 [0 ffffffff 3 800] ------- [3:255 -1:255 24 0] [0x2 7 1 [4 0] [15 4]] (REQUEST)
r 1.037209256 _4_ MAC  --- 0 AODV 48 [0 ffffffff 3 800] ------- [3:255 -1:255 24 0] [0x2 7 1 [4 0] [15 4]] (REQUEST)
r 1.037234256 _2_ RTR  --- 0 AODV 48 [0 ffffffff 3 800] ------- [3:255 -1:255 24 0] [0x2 7 1 [4 0] [15 4]] (REQUEST)